
                                        *****************
                                        * O   R   C   A *
                                        *****************

                                            #,                                       
                                            ###                                      
                                            ####                                     
                                            #####                                    
                                            ######                                   
                                           ########,                                 
                                     ,,################,,,,,                         
                               ,,#################################,,                 
                          ,,##########################################,,             
                       ,#########################################, ''#####,          
                    ,#############################################,,   '####,        
                  ,##################################################,,,,####,       
                ,###########''''           ''''###############################       
              ,#####''   ,,,,##########,,,,          '''####'''          '####       
            ,##' ,,,,###########################,,,                        '##       
           ' ,,###''''                  '''############,,,                           
         ,,##''                                '''############,,,,        ,,,,,,###''
      ,#''                                            '''#######################'''  
     '                                                          ''''####''''         
             ,#######,   #######,   ,#######,      ##                                
            ,#'     '#,  ##    ##  ,#'     '#,    #''#        ######   ,####,        
            ##       ##  ##   ,#'  ##            #'  '#       #        #'  '#        
            ##       ##  #######   ##           ,######,      #####,   #    #        
            '#,     ,#'  ##    ##  '#,     ,#' ,#      #,         ##   #,  ,#        
             '#######'   ##     ##  '#######'  #'      '#     #####' # '####'        



                  #######################################################
                  #                        -***-                        #
                  #          Department of theory and spectroscopy      #
                  #    Directorship and core code : Frank Neese         #
                  #        Max Planck Institute fuer Kohlenforschung    #
                  #                Kaiser Wilhelm Platz 1               #
                  #                 D-45470 Muelheim/Ruhr               #
                  #                      Germany                        #
                  #                                                     #
                  #                  All rights reserved                #
                  #                        -***-                        #
                  #######################################################


                         Program Version 5.0.0 -  RELEASE  -
                                (SVN: $Rev: 19529$)
                ($Date: 2021-06-28 11:36:33 +0200 (Mo, 28 Jun 2021) $)


 With contributions from (in alphabetic order):
   Daniel Aravena         : Magnetic Suceptibility
   Michael Atanasov       : Ab Initio Ligand Field Theory (pilot matlab implementation)
   Alexander A. Auer      : GIAO ZORA, VPT2 properties, NMR spectrum
   Ute Becker             : Parallelization
   Giovanni Bistoni       : ED, misc. LED, open-shell LED, HFLD
   Martin Brehm           : Molecular dynamics
   Dmytro Bykov           : SCF Hessian
   Vijay G. Chilkuri      : MRCI spin determinant printing, contributions to CSF-ICE
   Dipayan Datta          : RHF DLPNO-CCSD density
   Achintya Kumar Dutta   : EOM-CC, STEOM-CC
   Dmitry Ganyushin       : Spin-Orbit,Spin-Spin,Magnetic field MRCI
   Miquel Garcia          : C-PCM Hessian, Gaussian charge scheme
   Yang Guo               : DLPNO-NEVPT2, F12-NEVPT2, CIM, IAO-localization
   Andreas Hansen         : Spin unrestricted coupled pair/coupled cluster methods
   Benjamin Helmich-Paris : MC-RPA, TRAH-SCF, COSX integrals
   Lee Huntington         : MR-EOM, pCC
   Robert Izsak           : Overlap fitted RIJCOSX, COSX-SCS-MP3, EOM
   Marcus Kettner         : VPT2
   Christian Kollmar      : KDIIS, OOCD, Brueckner-CCSD(T), CCSD density, CASPT2, CASPT2-K
   Simone Kossmann        : Meta GGA functionals, TD-DFT gradient, OOMP2, MP2 Hessian
   Martin Krupicka        : Initial AUTO-CI
   Lucas Lang             : DCDCAS
   Marvin Lechner         : AUTO-CI (C++ implementation), FIC-MRCC
   Dagmar Lenk            : GEPOL surface, SMD
   Dimitrios Liakos       : Extrapolation schemes; Compound Job, initial MDCI parallelization
   Dimitrios Manganas     : Further ROCIS development; embedding schemes
   Dimitrios Pantazis     : SARC Basis sets
   Anastasios Papadopoulos: AUTO-CI, single reference methods and gradients
   Taras Petrenko         : DFT Hessian,TD-DFT gradient, ASA, ECA, R-Raman, ABS, FL, XAS/XES, NRVS
   Peter Pinski           : DLPNO-MP2, DLPNO-MP2 Gradient
   Christoph Reimann      : Effective Core Potentials
   Marius Retegan         : Local ZFS, SOC
   Christoph Riplinger    : Optimizer, TS searches, QM/MM, DLPNO-CCSD(T), (RO)-DLPNO pert. Triples
   Tobias Risthaus        : Range-separated hybrids, TD-DFT gradient, RPA, STAB
   Michael Roemelt        : Original ROCIS implementation
   Masaaki Saitow         : Open-shell DLPNO-CCSD energy and density
   Barbara Sandhoefer     : DKH picture change effects
   Avijit Sen             : IP-ROCIS
   Kantharuban Sivalingam : CASSCF convergence, NEVPT2, FIC-MRCI
   Bernardo de Souza      : ESD, SOC TD-DFT
   Georgi Stoychev        : AutoAux, RI-MP2 NMR
   Willem Van den Heuvel  : Paramagnetic NMR
   Boris Wezisla          : Elementary symmetry handling
   Frank Wennmohs         : Technical directorship


 We gratefully acknowledge several colleagues who have allowed us to
 interface, adapt or use parts of their codes:
   Stefan Grimme, W. Hujo, H. Kruse, P. Pracht,  : VdW corrections, initial TS optimization,
                  C. Bannwarth, S. Ehlert          DFT functionals, gCP, sTDA/sTD-DF
   Ed Valeev, F. Pavosevic, A. Kumar             : LibInt (2-el integral package), F12 methods
   Garnet Chan, S. Sharma, J. Yang, R. Olivares  : DMRG
   Ulf Ekstrom                                   : XCFun DFT Library
   Mihaly Kallay                                 : mrcc  (arbitrary order and MRCC methods)
   Jiri Pittner, Ondrej Demel                    : Mk-CCSD
   Frank Weinhold                                : gennbo (NPA and NBO analysis)
   Christopher J. Cramer and Donald G. Truhlar   : smd solvation model
   Lars Goerigk                                  : TD-DFT with DH, B97 family of functionals
   V. Asgeirsson, H. Jonsson                     : NEB implementation
   FAccTs GmbH                                   : IRC, NEB, NEB-TS, DLPNO-Multilevel, CI-OPT
                                                   MM, QMMM, 2- and 3-layer-ONIOM, Crystal-QMMM,
                                                   LR-CPCM, SF, NACMEs, symmetry and pop. for TD-DFT,
                                                   nearIR, NL-DFT gradient (VV10), updates on ESD,
                                                   ML-optimized integration grids
   S Lehtola, MJT Oliveira, MAL Marques          : LibXC Library
   Liviu Ungur et al                             : ANISO software


 Your calculation uses the libint2 library for the computation of 2-el integrals
 For citations please refer to: http://libint.valeyev.net

 Your ORCA version has been built with support for libXC version: 5.1.0
 For citations please refer to: https://tddft.org/programs/libxc/

 This ORCA versions uses:
   CBLAS   interface :  Fast vector & matrix operations
   LAPACKE interface :  Fast linear algebra routines
   SCALAPACK package :  Parallel linear algebra routines
   Shared memory     :  Shared parallel matrices
   BLAS/LAPACK       :  OpenBLAS 0.3.15  USE64BITINT DYNAMIC_ARCH NO_AFFINITY Prescott SINGLE_THREADED
        Core in use  :  Prescott
   Copyright (c) 2011-2014, The OpenBLAS Project




***************************************
The coordinates will be read from file: C6H6.xyz
***************************************


================================================================================

----- Orbital basis set information -----
Your calculation utilizes the basis: 6-31G(d,p)
   H-He, Li-Ne : W. J. Hehre, R. Ditchfield and J.A. Pople, J. Chem. Phys. 56, 2257 (1972).
                 Note: He and Ne are unpublished basis sets taken from the Gaussian program.
                 Note: Li and B from J. D. Dill and J. A. Pople, J. Chem. Phys. 62, 2921 (1975).
   Na - Ar     : M. M. Francl, W. J. Pietro, W. J. Hehre, J. S. Binkley, M. S. Gordon, 
                 D. J. DeFrees and J. A. Pople, J. Chem. Phys. 77, 3654 (1982).
   K - Zn      : V. A. Rassolov, J. A. Pople, M. A. Ratner, and T. L. Windus, J. Chem. Phys. 109, 1223 (1998).

----- AuxJ basis set information -----
Your calculation utilizes the auxiliary basis: def2/J
   F. Weigend, Phys. Chem. Chem. Phys. 8, 1057 (2006).

================================================================================
                                        WARNINGS
                       Please study these warnings very carefully!
================================================================================


WARNING: Geometry Optimization
  ===> : Switching off AutoStart
         For restart on a previous wavefunction, please use MOREAD

INFO   : the flag for use of the SHARK integral package has been found!

================================================================================
                                       INPUT FILE
================================================================================
NAME = orca.inp
|  1> !UKS B3LYP 6-31G(d,p) OPT FREQ VERYTIGHTSCF VERYTIGHTOPT
|  2> 
|  3> %PAL NPROCS 64 END
|  4> 
|  5> *xyzfile 0 1 C6H6.xyz *
|  6> 
|  7>                          ****END OF INPUT****
================================================================================

                       *****************************
                       * Geometry Optimization Run *
                       *****************************

Geometry optimization settings:
Update method            Update   .... BFGS
Choice of coordinates    CoordSys .... Z-matrix Internals
Initial Hessian          InHess   .... Almoef's Model

Convergence Tolerances:
Energy Change            TolE     ....  2.0000e-07 Eh
Max. Gradient            TolMAXG  ....  3.0000e-05 Eh/bohr
RMS Gradient             TolRMSG  ....  8.0000e-06 Eh/bohr
Max. Displacement        TolMAXD  ....  2.0000e-04 bohr
RMS Displacement         TolRMSD  ....  1.0000e-04 bohr
Strict Convergence                ....  False
------------------------------------------------------------------------------
                        ORCA OPTIMIZATION COORDINATE SETUP
------------------------------------------------------------------------------

The optimization will be done in new redundant internal coordinates
Making redundant internal coordinates   ...  (new redundants) done
Evaluating the initial hessian          ...  (Almloef) done
Evaluating the coordinates              ...  done
Calculating the B-matrix                .... done
Calculating the G-matrix                .... done
Diagonalizing the G-matrix              .... done
The first mode is                       ....   24
The number of degrees of freedom        ....   30

    -----------------------------------------------------------------
                    Redundant Internal Coordinates


    -----------------------------------------------------------------
         Definition                    Initial Value    Approx d2E/dq
    -----------------------------------------------------------------
      1. B(C   1,C   0)                  1.3952         0.612867   
      2. B(C   2,C   1)                  1.3952         0.612866   
      3. B(C   3,C   2)                  1.3952         0.612867   
      4. B(C   4,C   3)                  1.3952         0.612867   
      5. B(C   5,C   4)                  1.3952         0.612866   
      6. B(C   5,C   0)                  1.3952         0.612867   
      7. B(H   6,C   0)                  1.0871         0.363941   
      8. B(H   7,C   1)                  1.0871         0.363940   
      9. B(H   8,C   2)                  1.0871         0.363940   
     10. B(H   9,C   3)                  1.0871         0.363941   
     11. B(H  10,C   4)                  1.0871         0.363940   
     12. B(H  11,C   5)                  1.0871         0.363940   
     13. A(C   1,C   0,C   5)          120.0000         0.432263   
     14. A(C   1,C   0,H   6)          120.0000         0.352851   
     15. A(C   5,C   0,H   6)          120.0000         0.352851   
     16. A(C   2,C   1,H   7)          120.0000         0.352851   
     17. A(C   0,C   1,C   2)          120.0000         0.432263   
     18. A(C   0,C   1,H   7)          120.0000         0.352851   
     19. A(C   3,C   2,H   8)          120.0000         0.352851   
     20. A(C   1,C   2,H   8)          120.0000         0.352851   
     21. A(C   1,C   2,C   3)          120.0000         0.432263   
     22. A(C   4,C   3,H   9)          120.0000         0.352851   
     23. A(C   2,C   3,H   9)          120.0000         0.352851   
     24. A(C   2,C   3,C   4)          120.0000         0.432263   
     25. A(C   3,C   4,H  10)          120.0000         0.352851   
     26. A(C   3,C   4,C   5)          120.0000         0.432263   
     27. A(C   5,C   4,H  10)          120.0000         0.352851   
     28. A(C   0,C   5,C   4)          120.0000         0.432263   
     29. A(C   4,C   5,H  11)          120.0000         0.352851   
     30. A(C   0,C   5,H  11)          120.0000         0.352851   
     31. D(H   7,C   1,C   0,C   5)    180.0000         0.025955   
     32. D(H   7,C   1,C   0,H   6)      0.0000         0.025955   
     33. D(C   2,C   1,C   0,H   6)    180.0000         0.025955   
     34. D(C   2,C   1,C   0,C   5)      0.0000         0.025955   
     35. D(H   8,C   2,C   1,C   0)    180.0000         0.025955   
     36. D(C   3,C   2,C   1,C   0)      0.0000         0.025955   
     37. D(C   3,C   2,C   1,H   7)    180.0000         0.025955   
     38. D(H   8,C   2,C   1,H   7)      0.0000         0.025955   
     39. D(H   9,C   3,C   2,H   8)      0.0000         0.025955   
     40. D(H   9,C   3,C   2,C   1)    180.0000         0.025955   
     41. D(C   4,C   3,C   2,H   8)    180.0000         0.025955   
     42. D(C   4,C   3,C   2,C   1)      0.0000         0.025955   
     43. D(H  10,C   4,C   3,C   2)    180.0000         0.025955   
     44. D(C   5,C   4,C   3,H   9)    180.0000         0.025955   
     45. D(C   5,C   4,C   3,C   2)      0.0000         0.025955   
     46. D(H  10,C   4,C   3,H   9)      0.0000         0.025955   
     47. D(H  11,C   5,C   4,H  10)      0.0000         0.025955   
     48. D(C   0,C   5,C   4,H  10)    180.0000         0.025955   
     49. D(C   0,C   5,C   4,C   3)      0.0000         0.025955   
     50. D(H  11,C   5,C   0,H   6)      0.0000         0.025955   
     51. D(H  11,C   5,C   0,C   1)    180.0000         0.025955   
     52. D(H  11,C   5,C   4,C   3)    180.0000         0.025955   
     53. D(C   4,C   5,C   0,H   6)    180.0000         0.025955   
     54. D(C   4,C   5,C   0,C   1)      0.0000         0.025955   
    -----------------------------------------------------------------

Number of atoms                         .... 12
Number of degrees of freedom            .... 54

         *************************************************************
         *                GEOMETRY OPTIMIZATION CYCLE   1            *
         *************************************************************
---------------------------------
CARTESIAN COORDINATES (ANGSTROEM)
---------------------------------
  C      0.000000    1.395248    0.000000
  C      1.208320    0.697624    0.000000
  C      1.208320   -0.697624    0.000000
  C      0.000000   -1.395248    0.000000
  C     -1.208320   -0.697624    0.000000
  C     -1.208320    0.697624    0.000000
  H      0.000000    2.482360    0.000000
  H      2.149787    1.241180    0.000000
  H      2.149787   -1.241180    0.000000
  H      0.000000   -2.482360    0.000000
  H     -2.149787   -1.241180    0.000000
  H     -2.149787    1.241180    0.000000

----------------------------
CARTESIAN COORDINATES (A.U.)
----------------------------
  NO LB      ZA    FRAG     MASS         X           Y           Z
   0 C     6.0000    0    12.011    0.000000    2.636637    0.000000
   1 C     6.0000    0    12.011    2.283394    1.318318    0.000000
   2 C     6.0000    0    12.011    2.283394   -1.318318    0.000000
   3 C     6.0000    0    12.011    0.000000   -2.636637    0.000000
   4 C     6.0000    0    12.011   -2.283394   -1.318318    0.000000
   5 C     6.0000    0    12.011   -2.283394    1.318318    0.000000
   6 H     1.0000    0     1.008    0.000000    4.690981    0.000000
   7 H     1.0000    0     1.008    4.062509    2.345490    0.000000
   8 H     1.0000    0     1.008    4.062509   -2.345490    0.000000
   9 H     1.0000    0     1.008    0.000000   -4.690981    0.000000
  10 H     1.0000    0     1.008   -4.062509   -2.345490    0.000000
  11 H     1.0000    0     1.008   -4.062509    2.345490    0.000000

--------------------------------
INTERNAL COORDINATES (ANGSTROEM)
--------------------------------
 C      0   0   0     0.000000000000     0.00000000     0.00000000
 C      1   0   0     1.395247815901     0.00000000     0.00000000
 C      2   1   0     1.395248000000   120.00000436     0.00000000
 C      3   2   1     1.395247815901   120.00000436     0.00000000
 C      4   3   2     1.395247815901   119.99999127     0.00000000
 C      1   2   3     1.395247815901   119.99999127     0.00000000
 H      1   2   3     1.087112000000   120.00000436   180.00000000
 H      2   1   3     1.087112338825   120.00000595   180.00000000
 H      3   2   1     1.087112338825   119.99998969   180.00000000
 H      4   3   2     1.087112000000   120.00000436   180.00000000
 H      5   4   3     1.087112338825   120.00000595   180.00000000
 H      6   1   2     1.087112338825   120.00000595   180.00000000

---------------------------
INTERNAL COORDINATES (A.U.)
---------------------------
 C      0   0   0     0.000000000000     0.00000000     0.00000000
 C      1   0   0     2.636636261004     0.00000000     0.00000000
 C      2   1   0     2.636636608901   120.00000436     0.00000000
 C      3   2   1     2.636636261004   120.00000436     0.00000000
 C      4   3   2     2.636636261004   119.99999127     0.00000000
 C      1   2   3     2.636636261004   119.99999127     0.00000000
 H      1   2   3     2.054343956899   120.00000436   180.00000000
 H      2   1   3     2.054344597185   120.00000595   180.00000000
 H      3   2   1     2.054344597185   119.99998969   180.00000000
 H      4   3   2     2.054343956899   120.00000436   180.00000000
 H      5   4   3     2.054344597185   120.00000595   180.00000000
 H      6   1   2     2.054344597185   120.00000595   180.00000000

---------------------
BASIS SET INFORMATION
---------------------
There are 2 groups of distinct atoms

 Group   1 Type C   : 10s4p1d contracted to 3s2p1d pattern {631/31/1}
 Group   2 Type H   : 4s1p contracted to 2s1p pattern {31/1}

Atom   0C    basis set group =>   1
Atom   1C    basis set group =>   1
Atom   2C    basis set group =>   1
Atom   3C    basis set group =>   1
Atom   4C    basis set group =>   1
Atom   5C    basis set group =>   1
Atom   6H    basis set group =>   2
Atom   7H    basis set group =>   2
Atom   8H    basis set group =>   2
Atom   9H    basis set group =>   2
Atom  10H    basis set group =>   2
Atom  11H    basis set group =>   2
---------------------------------
AUXILIARY/J BASIS SET INFORMATION
---------------------------------
There are 2 groups of distinct atoms

 Group   1 Type C   : 12s5p4d2f1g contracted to 6s4p3d1f1g pattern {711111/2111/211/2/1}
 Group   2 Type H   : 5s2p1d contracted to 3s1p1d pattern {311/2/1}

Atom   0C    basis set group =>   1
Atom   1C    basis set group =>   1
Atom   2C    basis set group =>   1
Atom   3C    basis set group =>   1
Atom   4C    basis set group =>   1
Atom   5C    basis set group =>   1
Atom   6H    basis set group =>   2
Atom   7H    basis set group =>   2
Atom   8H    basis set group =>   2
Atom   9H    basis set group =>   2
Atom  10H    basis set group =>   2
Atom  11H    basis set group =>   2


           ************************************************************
           *        Program running with 64 parallel MPI-processes    *
           *              working on a common directory               *
           ************************************************************
------------------------------------------------------------------------------
                           ORCA GTO INTEGRAL CALCULATION
                           -- RI-GTO INTEGRALS CHOSEN --
------------------------------------------------------------------------------
------------------------------------------------------------------------------
                   ___                                                        
                  /   \      - P O W E R E D   B Y -                         
                 /     \                                                     
                 |  |  |   _    _      __       _____    __    __             
                 |  |  |  | |  | |    /  \     |  _  \  |  |  /  |          
                  \  \/   | |  | |   /    \    | | | |  |  | /  /          
                 / \  \   | |__| |  /  /\  \   | |_| |  |  |/  /          
                |  |  |   |  __  | /  /__\  \  |    /   |      \           
                |  |  |   | |  | | |   __   |  |    \   |  |\   \          
                \     /   | |  | | |  |  |  |  | |\  \  |  | \   \       
                 \___/    |_|  |_| |__|  |__|  |_| \__\ |__|  \__/        
                                                                              
                      - O R C A' S   B I G   F R I E N D -                    
                                      &                                       
                       - I N T E G R A L  F E E D E R -                       
                                                                              
 v1 FN, 2020, v2 2021                                                         
------------------------------------------------------------------------------


Reading SHARK input file orca.SHARKINP.tmp ... ok
----------------------
SHARK INTEGRAL PACKAGE
----------------------

Number of atoms                             ...     12
Number of basis functions                   ...    114
Number of shells                            ...     54
Maximum angular momentum                    ...      2
Integral batch strategy                     ... SHARK/LIBINT Hybrid
RI-J (if used) integral strategy            ... SPLIT-RIJ (Revised 2003 algorithm where possible)
Printlevel                                  ...      1
Contraction scheme used                     ... SEGMENTED contraction
Coulomb Range Separation                    ... NOT USED
Exchange Range Separation                   ... NOT USED
Finite Nucleus Model                        ... NOT USED
Auxiliary Coulomb fitting basis             ... AVAILABLE
   # of basis functions in Aux-J            ...    360
   # of shells in Aux-J                     ...    120
   Maximum angular momentum in Aux-J        ...      4
Auxiliary J/K fitting basis                 ... NOT available
Auxiliary Correlation fitting basis         ... NOT available
Auxiliary 'external' fitting basis          ... NOT available
Integral threshold                          ...     1.000000e-12
Primitive cut-off                           ...     1.000000e-14
Primitive pair pre-selection threshold      ...     1.000000e-14

Calculating pre-screening integrals         ... done (  0.0 sec) Dimension = 54
Organizing shell pair data                  ... done (  0.0 sec)
Shell pair information
Total number of shell pairs                 ...      1485
Shell pairs after pre-screening             ...      1445
Total number of primitive shell pairs       ...      7404
Primitive shell pairs kept                  ...      5523
          la=0 lb=0:    456 shell pairs
          la=1 lb=0:    516 shell pairs
          la=1 lb=1:    164 shell pairs
          la=2 lb=0:    180 shell pairs
          la=2 lb=1:    108 shell pairs
          la=2 lb=2:     21 shell pairs

Calculating one electron integrals          ... done (  0.0 sec)
Calculating RI/J V-Matrix + Cholesky decomp.... done (  0.1 sec)
Calculating Nuclear repulsion               ... done (  0.0 sec) ENN=    203.353074900384 Eh

SHARK setup successfully completed in   0.2 seconds

Maximum memory used throughout the entire GTOINT-calculation: 9.7 MB


           ************************************************************
           *        Program running with 64 parallel MPI-processes    *
           *              working on a common directory               *
           ************************************************************
-------------------------------------------------------------------------------
                                 ORCA SCF
-------------------------------------------------------------------------------

------------
SCF SETTINGS
------------
Hamiltonian:
 Density Functional     Method          .... DFT(GTOs)
 Exchange Functional    Exchange        .... B88
   X-Alpha parameter    XAlpha          ....  0.666667
   Becke's b parameter  XBeta           ....  0.004200
 Correlation Functional Correlation     .... LYP
 LDA part of GGA corr.  LDAOpt          .... VWN-5
 Gradients option       PostSCFGGA      .... off
 Hybrid DFT is turned on
   Fraction HF Exchange ScalHFX         ....  0.200000
   Scaling of DF-GGA-X  ScalDFX         ....  0.720000
   Scaling of DF-GGA-C  ScalDFC         ....  0.810000
   Scaling of DF-LDA-C  ScalLDAC        ....  1.000000
   Perturbative correction              ....  0.000000
   Density functional embedding theory  .... OFF
   NL short-range parameter             ....  4.800000
 RI-approximation to the Coulomb term is turned on
   Number of AuxJ basis functions       .... 360
   RIJ-COSX (HFX calculated with COS-X)).... on


General Settings:
 Integral files         IntName         .... orca
 Hartree-Fock type      HFTyp           .... UHF
 Total Charge           Charge          ....    0
 Multiplicity           Mult            ....    1
 Number of Electrons    NEL             ....   42
 Basis Dimension        Dim             ....  114
 Nuclear Repulsion      ENuc            ....    203.3530749004 Eh

Convergence Acceleration:
 DIIS                   CNVDIIS         .... on
   Start iteration      DIISMaxIt       ....    12
   Startup error        DIISStart       ....  0.200000
   # of expansion vecs  DIISMaxEq       ....     5
   Bias factor          DIISBfac        ....   1.050
   Max. coefficient     DIISMaxC        ....  10.000
 Trust-Rad. Augm. Hess. CNVTRAH         .... auto
   Auto Start mean grad. ratio tolernc. ....  1.125000
   Auto Start start iteration           ....    20
   Auto Start num. interpolation iter.  ....    10
   Max. Number of Micro iterations      ....    16
   Max. Number of Macro iterations      .... Maxiter - #DIIS iter
   Number of Davidson start vectors     ....     2
   Converg. threshold I  (grad. norm)   ....   2.000e-06
   Converg. threshold II (energy diff.) ....   1.000e-09
   Grad. Scal. Fac. for Micro threshold ....   0.100
   Minimum threshold for Micro iter.    ....   0.010
   NR start threshold (gradient norm)   ....   0.001
   Initial trust radius                 ....   0.400
   Minimum AH scaling param. (alpha)    ....   1.000
   Maximum AH scaling param. (alpha)    .... 1000.000
   Orbital update algorithm             .... Taylor
   White noise on init. David. guess    .... on
   Maximum white noise                  ....   0.010
   Quad. conv. algorithm                .... NR
 SOSCF                  CNVSOSCF        .... off
 Level Shifting         CNVShift        .... on
   Level shift para.    LevelShift      ....    0.2500
   Turn off err/grad.   ShiftErr        ....    0.0010
 Zerner damping         CNVZerner       .... off
 Static damping         CNVDamp         .... on
   Fraction old density DampFac         ....    0.7000
   Max. Damping (<1)    DampMax         ....    0.9800
   Min. Damping (>=0)   DampMin         ....    0.0000
   Turn off err/grad.   DampErr         ....    0.1000
 Fernandez-Rico         CNVRico         .... off

SCF Procedure:
 Maximum # iterations   MaxIter         ....   125
 SCF integral mode      SCFMode         .... Direct
   Integral package                     .... SHARK and LIBINT hybrid scheme
 Reset frequency        DirectResetFreq ....    20
 Integral Threshold     Thresh          ....  1.000e-12 Eh
 Primitive CutOff       TCut            ....  1.000e-14 Eh

Convergence Tolerance:
 Convergence Check Mode ConvCheckMode   .... Total+1el-Energy
 Convergence forced     ConvForced      .... 0
 Energy Change          TolE            ....  1.000e-09 Eh
 1-El. energy change                    ....  1.000e-06 Eh
 DIIS Error             TolErr          ....  1.000e-08


Diagonalization of the overlap matrix:
Smallest eigenvalue                        ... 5.268e-04
Time for diagonalization                   ...    0.013 sec
Threshold for overlap eigenvalues          ... 1.000e-08
Number of eigenvalues below threshold      ... 0
Time for construction of square roots      ...    0.014 sec
Total time needed                          ...    0.028 sec

Time for model grid setup =    0.081 sec

------------------------------
INITIAL GUESS: MODEL POTENTIAL
------------------------------
Loading Hartree-Fock densities                     ... done
Calculating cut-offs                               ... done
Initializing the effective Hamiltonian             ... done
Setting up the integral package (SHARK)            ... done
Starting the Coulomb interaction                   ... done (   0.0 sec)
Reading the grid                                   ... done
Mapping shells                                     ... done
Starting the XC term evaluation                    ... done (   0.0 sec)
  promolecular density results
     # of electrons  =     41.997110670
     EX              =    -32.605170569
     EC              =     -1.377087526
     EX+EC           =    -33.982258095
Transforming the Hamiltonian                       ... done (   0.0 sec)
Diagonalizing the Hamiltonian                      ... done (   0.0 sec)
Back transforming the eigenvectors                 ... done (   0.0 sec)
Now organizing SCF variables                       ... done
                      ------------------
                      INITIAL GUESS DONE (   0.1 sec)
                      ------------------
-------------------
DFT GRID GENERATION
-------------------

General Integration Accuracy     IntAcc      ... 4.388
Radial Grid Type                 RadialGrid  ... OptM3 with GC (2021)
Angular Grid (max. ang.)         AngularGrid ... 4 (Lebedev-302)
Angular grid pruning method      GridPruning ... 4 (adaptive)
Weight generation scheme         WeightScheme... Becke
Basis function cutoff            BFCut       ... 1.0000e-12
Integration weight cutoff        WCut        ... 1.0000e-14
Angular grids for H and He will be reduced by one unit
Partially contracted basis set               ... off
Rotationally invariant grid construction     ... off

Total number of grid points                  ...    55526
Total number of batches                      ...      874
Average number of points per batch           ...       63
Average number of grid points per atom       ...     4627
Time for grid setup =    0.318 sec

--------------------
COSX GRID GENERATION
--------------------

GRIDX 1
-------
General Integration Accuracy     IntAcc      ... 3.816
Radial Grid Type                 RadialGrid  ... OptM3 with GC (2021)
Angular Grid (max. ang.)         AngularGrid ... 1 (Lebedev-50)
Angular grid pruning method      GridPruning ... 4 (adaptive)
Weight generation scheme         WeightScheme... Becke
Basis function cutoff            BFCut       ... 1.0000e-12
Integration weight cutoff        WCut        ... 1.0000e-14
Angular grids for H and He will be reduced by one unit
Partially contracted basis set               ... on
Rotationally invariant grid construction     ... off

Total number of grid points                  ...     7124
Total number of batches                      ...      114
Average number of points per batch           ...       62
Average number of grid points per atom       ...      594
UseSFitting                                  ... on

GRIDX 2
-------
General Integration Accuracy     IntAcc      ... 4.020
Radial Grid Type                 RadialGrid  ... OptM3 with GC (2021)
Angular Grid (max. ang.)         AngularGrid ... 2 (Lebedev-110)
Angular grid pruning method      GridPruning ... 4 (adaptive)
Weight generation scheme         WeightScheme... Becke
Basis function cutoff            BFCut       ... 1.0000e-12
Integration weight cutoff        WCut        ... 1.0000e-14
Angular grids for H and He will be reduced by one unit
Partially contracted basis set               ... on
Rotationally invariant grid construction     ... off

Total number of grid points                  ...    15456
Total number of batches                      ...      246
Average number of points per batch           ...       62
Average number of grid points per atom       ...     1288
UseSFitting                                  ... on

GRIDX 3
-------
General Integration Accuracy     IntAcc      ... 4.338
Radial Grid Type                 RadialGrid  ... OptM3 with GC (2021)
Angular Grid (max. ang.)         AngularGrid ... 3 (Lebedev-194)
Angular grid pruning method      GridPruning ... 4 (adaptive)
Weight generation scheme         WeightScheme... Becke
Basis function cutoff            BFCut       ... 1.0000e-12
Integration weight cutoff        WCut        ... 1.0000e-14
Angular grids for H and He will be reduced by one unit
Partially contracted basis set               ... on
Rotationally invariant grid construction     ... off

Total number of grid points                  ...    34042
Total number of batches                      ...      536
Average number of points per batch           ...       63
Average number of grid points per atom       ...     2837
UseSFitting                                  ... on

Time for X-Grid setup             =    0.220 sec

--------------
SCF ITERATIONS
--------------
ITER       Energy         Delta-E        Max-DP      RMS-DP      [F,P]     Damp
               ***  Starting incremental Fock matrix formation  ***
  0   -231.9533540948   0.000000000000 0.02059563  0.00116048  0.1200789 0.7000
  1   -232.0179735483  -0.064619453566 0.01602295  0.00087884  0.0673401 0.7000
                               ***Turning on DIIS***
  2   -232.0468874394  -0.028913891056 0.02909639  0.00152646  0.0300655 0.0000
  3   -232.0878771503  -0.040989710882 0.01173746  0.00060255  0.0397190 0.0000
  4   -232.0984185049  -0.010541354639 0.00452296  0.00017999  0.0081383 0.0000
  5   -232.0989568972  -0.000538392302 0.00148660  0.00006058  0.0018441 0.0000
  6   -232.0989865702  -0.000029672944 0.00066079  0.00002840  0.0004401 0.0000
               *** Restarting incremental Fock matrix formation ***
                                   *** Resetting DIIS ***
  7   -232.0989928618  -0.000006291663 0.00008033  0.00000403  0.0000552 0.0000
  8   -232.0989928866  -0.000000024785 0.00002422  0.00000118  0.0000570 0.0000
  9   -232.0989929036  -0.000000017017 0.00000229  0.00000018  0.0000063 0.0000
 10   -232.0989929039  -0.000000000254 0.00000063  0.00000002  0.0000012 0.0000
 11   -232.0989929040  -0.000000000122 0.00000026  0.00000001  0.0000004 0.0000
                 **** Energy Check signals convergence ****

               *****************************************************
               *                     SUCCESS                       *
               *           SCF CONVERGED AFTER  12 CYCLES          *
               *****************************************************

Old exchange energy                            =     -6.651586239 Eh
New exchange energy                            =     -6.651605734 Eh
Exchange energy change after final integration =     -0.000019495 Eh
Total energy after final integration           =   -232.099012398 Eh
Final COS-X integration done in                =     0.129 sec

----------------
TOTAL SCF ENERGY
----------------

Total Energy       :         -232.09901240 Eh           -6315.73521 eV

Components:
Nuclear Repulsion  :          203.35307490 Eh            5533.51849 eV
Electronic Energy  :         -435.45208730 Eh          -11849.25370 eV
One Electron Energy:         -714.14625952 Eh          -19432.90767 eV
Two Electron Energy:          278.69417222 Eh            7583.65397 eV
Max COSX asymmetry :            0.00000030 Eh               0.00001 eV

Virial components:
Potential Energy   :         -462.72438691 Eh          -12591.37070 eV
Kinetic Energy     :          230.62537451 Eh            6275.63549 eV
Virial Ratio       :            2.00638975


DFT components:
N(Alpha)           :       21.000014050269 electrons
N(Beta)            :       21.000014050269 electrons
N(Total)           :       42.000028100537 electrons
E(X)               :      -26.384426620156 Eh       
E(C)               :       -1.634114793443 Eh       
E(XC)              :      -28.018541413599 Eh       
DFET-embed. en.    :        0.000000000000 Eh       

---------------
SCF CONVERGENCE
---------------

  Last Energy change         ...    4.8345e-11  Tolerance :   1.0000e-09
  Last MAX-Density change    ...    0.0000e+00  Tolerance :   1.0000e-08
  Last RMS-Density change    ...    0.0000e+00  Tolerance :   1.0000e-09
  Last DIIS Error            ...    2.4481e-07  Tolerance :   1.0000e-08

             **** THE GBW FILE WAS UPDATED (orca.gbw) ****
             **** DENSITY orca.scfp WAS UPDATED ****
             **** ENERGY FILE WAS UPDATED (orca.en.tmp) ****
----------------------
UHF SPIN CONTAMINATION
----------------------

Warning: in a DFT calculation there is little theoretical justification to 
         calculate <S**2> as in Hartree-Fock theory. We will do it anyways
         but you should keep in mind that the values have only limited relevance

Expectation value of <S**2>     :     0.000000
Ideal value S*(S+1) for S=0.0   :     0.000000
Deviation                       :     0.000000

             **** THE GBW FILE WAS UPDATED (orca.gbw) ****
             **** DENSITY orca.scfp WAS UPDATED ****
----------------
ORBITAL ENERGIES
----------------
                 SPIN UP ORBITALS
  NO   OCC          E(Eh)            E(eV) 
   0   1.0000     -10.179312      -276.9932 
   1   1.0000     -10.179113      -276.9878 
   2   1.0000     -10.179110      -276.9877 
   3   1.0000     -10.178656      -276.9753 
   4   1.0000     -10.178651      -276.9752 
   5   1.0000     -10.178445      -276.9696 
   6   1.0000      -0.843539       -22.9539 
   7   1.0000      -0.736492       -20.0410 
   8   1.0000      -0.736491       -20.0410 
   9   1.0000      -0.593638       -16.1537 
  10   1.0000      -0.593637       -16.1537 
  11   1.0000      -0.514369       -13.9967 
  12   1.0000      -0.454008       -12.3542 
  13   1.0000      -0.435321       -11.8457 
  14   1.0000      -0.412915       -11.2360 
  15   1.0000      -0.412911       -11.2359 
  16   1.0000      -0.356824        -9.7097 
  17   1.0000      -0.335954        -9.1418 
  18   1.0000      -0.335946        -9.1416 
  19   1.0000      -0.243602        -6.6287 
  20   1.0000      -0.243598        -6.6287 
  21   0.0000       0.006281         0.1709 
  22   0.0000       0.006286         0.1711 
  23   0.0000       0.094025         2.5586 
  24   0.0000       0.147919         4.0251 
  25   0.0000       0.147920         4.0251 
  26   0.0000       0.165801         4.5117 
  27   0.0000       0.184980         5.0336 
  28   0.0000       0.184985         5.0337 
  29   0.0000       0.193639         5.2692 
  30   0.0000       0.304421         8.2837 
  31   0.0000       0.304432         8.2840 
  32   0.0000       0.322395         8.7728 
  33   0.0000       0.322401         8.7730 
  34   0.0000       0.470530        12.8038 
  35   0.0000       0.530354        14.4317 
  36   0.0000       0.552711        15.0400 
  37   0.0000       0.555781        15.1236 
  38   0.0000       0.565724        15.3941 
  39   0.0000       0.602381        16.3916 
  40   0.0000       0.604698        16.4547 
  41   0.0000       0.604757        16.4563 
  42   0.0000       0.607374        16.5275 
  43   0.0000       0.607396        16.5281 
  44   0.0000       0.635908        17.3039 
  45   0.0000       0.635925        17.3044 
  46   0.0000       0.670421        18.2431 
  47   0.0000       0.670459        18.2441 
  48   0.0000       0.745947        20.2983 
  49   0.0000       0.822649        22.3854 
  50   0.0000       0.822652        22.3855 
  51   0.0000       0.830840        22.6083 
  52   0.0000       0.846743        23.0411 
  53   0.0000       0.846779        23.0420 
  54   0.0000       0.927938        25.2505 
  55   0.0000       0.944395        25.6983 
  56   0.0000       0.944455        25.6999 
  57   0.0000       0.962896        26.2017 
  58   0.0000       1.086740        29.5717 
  59   0.0000       1.086771        29.5725 
  60   0.0000       1.134613        30.8744 
  61   0.0000       1.134650        30.8754 
  62   0.0000       1.208971        32.8978 
  63   0.0000       1.265115        34.4255 
  64   0.0000       1.303635        35.4737 
  65   0.0000       1.410423        38.3796 
  66   0.0000       1.410427        38.3797 
  67   0.0000       1.432178        38.9716 
  68   0.0000       1.432196        38.9720 
  69   0.0000       1.435246        39.0550 
  70   0.0000       1.435323        39.0571 
  71   0.0000       1.760223        47.8981 
  72   0.0000       1.762021        47.9470 
  73   0.0000       1.818376        49.4805 
  74   0.0000       1.895399        51.5764 
  75   0.0000       1.926946        52.4349 
  76   0.0000       1.926947        52.4349 
  77   0.0000       1.976043        53.7709 
  78   0.0000       1.976045        53.7709 
  79   0.0000       1.982107        53.9359 
  80   0.0000       1.982133        53.9366 
  81   0.0000       2.028294        55.1927 
  82   0.0000       2.080611        56.6163 
  83   0.0000       2.080632        56.6169 
  84   0.0000       2.300995        62.6133 
  85   0.0000       2.301009        62.6136 
  86   0.0000       2.361425        64.2576 
  87   0.0000       2.361425        64.2576 
  88   0.0000       2.369850        64.4869 
  89   0.0000       2.414493        65.7017 
  90   0.0000       2.417810        65.7920 
  91   0.0000       2.417826        65.7924 
  92   0.0000       2.447457        66.5987 
  93   0.0000       2.447475        66.5992 
  94   0.0000       2.498123        67.9774 
  95   0.0000       2.498142        67.9779 
  96   0.0000       2.528611        68.8070 
  97   0.0000       2.597990        70.6949 
  98   0.0000       2.603288        70.8391 
  99   0.0000       2.603293        70.8392 
 100   0.0000       2.663309        72.4723 
 101   0.0000       2.775168        75.5162 
 102   0.0000       2.816856        76.6505 
 103   0.0000       2.816864        76.6508 
 104   0.0000       3.056364        83.1679 
 105   0.0000       3.056368        83.1680 
 106   0.0000       3.198917        87.0470 
 107   0.0000       3.236911        88.0808 
 108   0.0000       3.249672        88.4281 
 109   0.0000       3.249674        88.4281 
 110   0.0000       3.398126        92.4677 
 111   0.0000       3.523139        95.8695 
 112   0.0000       3.523143        95.8696 
 113   0.0000       3.988510       108.5329 

                 SPIN DOWN ORBITALS
  NO   OCC          E(Eh)            E(eV) 
   0   1.0000     -10.179312      -276.9932 
   1   1.0000     -10.179113      -276.9878 
   2   1.0000     -10.179110      -276.9877 
   3   1.0000     -10.178656      -276.9753 
   4   1.0000     -10.178651      -276.9752 
   5   1.0000     -10.178445      -276.9696 
   6   1.0000      -0.843539       -22.9539 
   7   1.0000      -0.736492       -20.0410 
   8   1.0000      -0.736491       -20.0410 
   9   1.0000      -0.593638       -16.1537 
  10   1.0000      -0.593637       -16.1537 
  11   1.0000      -0.514369       -13.9967 
  12   1.0000      -0.454008       -12.3542 
  13   1.0000      -0.435321       -11.8457 
  14   1.0000      -0.412915       -11.2360 
  15   1.0000      -0.412911       -11.2359 
  16   1.0000      -0.356824        -9.7097 
  17   1.0000      -0.335954        -9.1418 
  18   1.0000      -0.335946        -9.1416 
  19   1.0000      -0.243602        -6.6287 
  20   1.0000      -0.243598        -6.6287 
  21   0.0000       0.006281         0.1709 
  22   0.0000       0.006286         0.1711 
  23   0.0000       0.094025         2.5586 
  24   0.0000       0.147919         4.0251 
  25   0.0000       0.147920         4.0251 
  26   0.0000       0.165801         4.5117 
  27   0.0000       0.184980         5.0336 
  28   0.0000       0.184985         5.0337 
  29   0.0000       0.193639         5.2692 
  30   0.0000       0.304421         8.2837 
  31   0.0000       0.304432         8.2840 
  32   0.0000       0.322395         8.7728 
  33   0.0000       0.322401         8.7730 
  34   0.0000       0.470530        12.8038 
  35   0.0000       0.530354        14.4317 
  36   0.0000       0.552711        15.0400 
  37   0.0000       0.555781        15.1236 
  38   0.0000       0.565724        15.3941 
  39   0.0000       0.602381        16.3916 
  40   0.0000       0.604698        16.4547 
  41   0.0000       0.604757        16.4563 
  42   0.0000       0.607374        16.5275 
  43   0.0000       0.607396        16.5281 
  44   0.0000       0.635908        17.3039 
  45   0.0000       0.635925        17.3044 
  46   0.0000       0.670421        18.2431 
  47   0.0000       0.670459        18.2441 
  48   0.0000       0.745947        20.2983 
  49   0.0000       0.822649        22.3854 
  50   0.0000       0.822652        22.3855 
  51   0.0000       0.830840        22.6083 
  52   0.0000       0.846743        23.0411 
  53   0.0000       0.846779        23.0420 
  54   0.0000       0.927938        25.2505 
  55   0.0000       0.944395        25.6983 
  56   0.0000       0.944455        25.6999 
  57   0.0000       0.962896        26.2017 
  58   0.0000       1.086740        29.5717 
  59   0.0000       1.086771        29.5725 
  60   0.0000       1.134613        30.8744 
  61   0.0000       1.134650        30.8754 
  62   0.0000       1.208971        32.8978 
  63   0.0000       1.265115        34.4255 
  64   0.0000       1.303635        35.4737 
  65   0.0000       1.410423        38.3796 
  66   0.0000       1.410427        38.3797 
  67   0.0000       1.432178        38.9716 
  68   0.0000       1.432196        38.9720 
  69   0.0000       1.435246        39.0550 
  70   0.0000       1.435323        39.0571 
  71   0.0000       1.760223        47.8981 
  72   0.0000       1.762021        47.9470 
  73   0.0000       1.818376        49.4805 
  74   0.0000       1.895399        51.5764 
  75   0.0000       1.926946        52.4349 
  76   0.0000       1.926947        52.4349 
  77   0.0000       1.976043        53.7709 
  78   0.0000       1.976045        53.7709 
  79   0.0000       1.982107        53.9359 
  80   0.0000       1.982133        53.9366 
  81   0.0000       2.028294        55.1927 
  82   0.0000       2.080611        56.6163 
  83   0.0000       2.080632        56.6169 
  84   0.0000       2.300995        62.6133 
  85   0.0000       2.301009        62.6136 
  86   0.0000       2.361425        64.2576 
  87   0.0000       2.361425        64.2576 
  88   0.0000       2.369850        64.4869 
  89   0.0000       2.414493        65.7017 
  90   0.0000       2.417810        65.7920 
  91   0.0000       2.417826        65.7924 
  92   0.0000       2.447457        66.5987 
  93   0.0000       2.447475        66.5992 
  94   0.0000       2.498123        67.9774 
  95   0.0000       2.498142        67.9779 
  96   0.0000       2.528611        68.8070 
  97   0.0000       2.597990        70.6949 
  98   0.0000       2.603288        70.8391 
  99   0.0000       2.603293        70.8392 
 100   0.0000       2.663309        72.4723 
 101   0.0000       2.775168        75.5162 
 102   0.0000       2.816856        76.6505 
 103   0.0000       2.816864        76.6508 
 104   0.0000       3.056364        83.1679 
 105   0.0000       3.056368        83.1680 
 106   0.0000       3.198917        87.0470 
 107   0.0000       3.236911        88.0808 
 108   0.0000       3.249672        88.4281 
 109   0.0000       3.249674        88.4281 
 110   0.0000       3.398126        92.4677 
 111   0.0000       3.523139        95.8695 
 112   0.0000       3.523143        95.8696 
 113   0.0000       3.988510       108.5329 

                    ********************************
                    * MULLIKEN POPULATION ANALYSIS *
                    ********************************

--------------------------------------------
MULLIKEN ATOMIC CHARGES AND SPIN POPULATIONS
--------------------------------------------
   0 C :   -0.082841    0.000000
   1 C :   -0.082724    0.000000
   2 C :   -0.082724    0.000000
   3 C :   -0.082841    0.000000
   4 C :   -0.082724    0.000000
   5 C :   -0.082724    0.000000
   6 H :    0.082749    0.000000
   7 H :    0.082771    0.000000
   8 H :    0.082771    0.000000
   9 H :    0.082748    0.000000
  10 H :    0.082771    0.000000
  11 H :    0.082771    0.000000
Sum of atomic charges         :    0.0000000
Sum of atomic spin populations:    0.0000000

-----------------------------------------------------
MULLIKEN REDUCED ORBITAL CHARGES AND SPIN POPULATIONS
-----------------------------------------------------
CHARGE
  0 C s       :     3.170365  s :     3.170365
      pz      :     0.989066  p :     2.877675
      px      :     0.928183
      py      :     0.960426
      dz2     :     0.002848  d :     0.034801
      dxz     :     0.006120
      dyz     :     0.002116
      dx2y2   :     0.013392
      dxy     :     0.010326
  1 C s       :     3.170313  s :     3.170313
      pz      :     0.989019  p :     2.877611
      px      :     0.952308
      py      :     0.936284
      dz2     :     0.002847  d :     0.034799
      dxz     :     0.003117
      dyz     :     0.005119
      dx2y2   :     0.011091
      dxy     :     0.012625
  2 C s       :     3.170313  s :     3.170313
      pz      :     0.989019  p :     2.877612
      px      :     0.952308
      py      :     0.936285
      dz2     :     0.002847  d :     0.034799
      dxz     :     0.003117
      dyz     :     0.005119
      dx2y2   :     0.011091
      dxy     :     0.012625
  3 C s       :     3.170366  s :     3.170366
      pz      :     0.989066  p :     2.877674
      px      :     0.928183
      py      :     0.960425
      dz2     :     0.002848  d :     0.034801
      dxz     :     0.006120
      dyz     :     0.002116
      dx2y2   :     0.013392
      dxy     :     0.010326
  4 C s       :     3.170314  s :     3.170314
      pz      :     0.989019  p :     2.877611
      px      :     0.952308
      py      :     0.936285
      dz2     :     0.002847  d :     0.034799
      dxz     :     0.003117
      dyz     :     0.005119
      dx2y2   :     0.011091
      dxy     :     0.012625
  5 C s       :     3.170313  s :     3.170313
      pz      :     0.989019  p :     2.877611
      px      :     0.952308
      py      :     0.936284
      dz2     :     0.002847  d :     0.034799
      dxz     :     0.003117
      dyz     :     0.005119
      dx2y2   :     0.011091
      dxy     :     0.012625
  6 H s       :     0.904984  s :     0.904984
      pz      :     0.002729  p :     0.012267
      px      :     0.001920
      py      :     0.007618
  7 H s       :     0.904962  s :     0.904962
      pz      :     0.002730  p :     0.012267
      px      :     0.006193
      py      :     0.003345
  8 H s       :     0.904962  s :     0.904962
      pz      :     0.002730  p :     0.012267
      px      :     0.006193
      py      :     0.003345
  9 H s       :     0.904985  s :     0.904985
      pz      :     0.002729  p :     0.012267
      px      :     0.001920
      py      :     0.007618
 10 H s       :     0.904962  s :     0.904962
      pz      :     0.002730  p :     0.012267
      px      :     0.006193
      py      :     0.003345
 11 H s       :     0.904962  s :     0.904962
      pz      :     0.002730  p :     0.012267
      px      :     0.006193
      py      :     0.003345

SPIN
  0 C s       :     0.000000  s :     0.000000
      pz      :     0.000000  p :     0.000000
      px      :     0.000000
      py      :     0.000000
      dz2     :     0.000000  d :     0.000000
      dxz     :     0.000000
      dyz     :     0.000000
      dx2y2   :     0.000000
      dxy     :     0.000000
  1 C s       :     0.000000  s :     0.000000
      pz      :     0.000000  p :     0.000000
      px      :     0.000000
      py      :     0.000000
      dz2     :     0.000000  d :     0.000000
      dxz     :     0.000000
      dyz     :     0.000000
      dx2y2   :     0.000000
      dxy     :     0.000000
  2 C s       :     0.000000  s :     0.000000
      pz      :     0.000000  p :     0.000000
      px      :     0.000000
      py      :     0.000000
      dz2     :     0.000000  d :     0.000000
      dxz     :     0.000000
      dyz     :     0.000000
      dx2y2   :     0.000000
      dxy     :     0.000000
  3 C s       :     0.000000  s :     0.000000
      pz      :     0.000000  p :     0.000000
      px      :     0.000000
      py      :     0.000000
      dz2     :     0.000000  d :     0.000000
      dxz     :     0.000000
      dyz     :     0.000000
      dx2y2   :     0.000000
      dxy     :     0.000000
  4 C s       :     0.000000  s :     0.000000
      pz      :     0.000000  p :     0.000000
      px      :     0.000000
      py      :     0.000000
      dz2     :     0.000000  d :     0.000000
      dxz     :     0.000000
      dyz     :     0.000000
      dx2y2   :     0.000000
      dxy     :     0.000000
  5 C s       :     0.000000  s :     0.000000
      pz      :     0.000000  p :     0.000000
      px      :     0.000000
      py      :     0.000000
      dz2     :     0.000000  d :     0.000000
      dxz     :     0.000000
      dyz     :     0.000000
      dx2y2   :     0.000000
      dxy     :     0.000000
  6 H s       :     0.000000  s :     0.000000
      pz      :     0.000000  p :     0.000000
      px      :     0.000000
      py      :     0.000000
  7 H s       :     0.000000  s :     0.000000
      pz      :     0.000000  p :     0.000000
      px      :     0.000000
      py      :     0.000000
  8 H s       :     0.000000  s :     0.000000
      pz      :     0.000000  p :     0.000000
      px      :     0.000000
      py      :     0.000000
  9 H s       :     0.000000  s :     0.000000
      pz      :     0.000000  p :     0.000000
      px      :     0.000000
      py      :     0.000000
 10 H s       :     0.000000  s :     0.000000
      pz      :     0.000000  p :     0.000000
      px      :     0.000000
      py      :     0.000000
 11 H s       :     0.000000  s :     0.000000
      pz      :     0.000000  p :     0.000000
      px      :     0.000000
      py      :     0.000000


                     *******************************
                     * LOEWDIN POPULATION ANALYSIS *
                     *******************************

-------------------------------------------
LOEWDIN ATOMIC CHARGES AND SPIN POPULATIONS
-------------------------------------------
   0 C :   -0.072293    0.000000
   1 C :   -0.072247    0.000000
   2 C :   -0.072247    0.000000
   3 C :   -0.072293    0.000000
   4 C :   -0.072247    0.000000
   5 C :   -0.072247    0.000000
   6 H :    0.072261    0.000000
   7 H :    0.072263    0.000000
   8 H :    0.072263    0.000000
   9 H :    0.072261    0.000000
  10 H :    0.072263    0.000000
  11 H :    0.072263    0.000000

----------------------------------------------------
LOEWDIN REDUCED ORBITAL CHARGES AND SPIN POPULATIONS
----------------------------------------------------
CHARGE
  0 C s       :     2.897822  s :     2.897822
      pz      :     0.975286  p :     3.090471
      px      :     1.063638
      py      :     1.051547
      dz2     :     0.005403  d :     0.083999
      dxz     :     0.013448
      dyz     :     0.003525
      dx2y2   :     0.033648
      dxy     :     0.027976
  1 C s       :     2.897821  s :     2.897821
      pz      :     0.975254  p :     3.090425
      px      :     1.054556
      py      :     1.060615
      dz2     :     0.005403  d :     0.084001
      dxz     :     0.006006
      dyz     :     0.010967
      dx2y2   :     0.029395
      dxy     :     0.032230
  2 C s       :     2.897821  s :     2.897821
      pz      :     0.975254  p :     3.090425
      px      :     1.054556
      py      :     1.060615
      dz2     :     0.005403  d :     0.084001
      dxz     :     0.006006
      dyz     :     0.010967
      dx2y2   :     0.029395
      dxy     :     0.032230
  3 C s       :     2.897822  s :     2.897822
      pz      :     0.975286  p :     3.090471
      px      :     1.063638
      py      :     1.051547
      dz2     :     0.005403  d :     0.083999
      dxz     :     0.013448
      dyz     :     0.003525
      dx2y2   :     0.033648
      dxy     :     0.027976
  4 C s       :     2.897821  s :     2.897821
      pz      :     0.975254  p :     3.090425
      px      :     1.054556
      py      :     1.060615
      dz2     :     0.005403  d :     0.084001
      dxz     :     0.006006
      dyz     :     0.010967
      dx2y2   :     0.029395
      dxy     :     0.032230
  5 C s       :     2.897821  s :     2.897821
      pz      :     0.975254  p :     3.090425
      px      :     1.054556
      py      :     1.060615
      dz2     :     0.005403  d :     0.084001
      dxz     :     0.006006
      dyz     :     0.010967
      dx2y2   :     0.029395
      dxy     :     0.032230
  6 H s       :     0.888102  s :     0.888102
      pz      :     0.007763  p :     0.039637
      px      :     0.005762
      py      :     0.026113
  7 H s       :     0.888100  s :     0.888100
      pz      :     0.007762  p :     0.039637
      px      :     0.021025
      py      :     0.010849
  8 H s       :     0.888100  s :     0.888100
      pz      :     0.007762  p :     0.039637
      px      :     0.021025
      py      :     0.010849
  9 H s       :     0.888102  s :     0.888102
      pz      :     0.007763  p :     0.039637
      px      :     0.005762
      py      :     0.026113
 10 H s       :     0.888100  s :     0.888100
      pz      :     0.007762  p :     0.039637
      px      :     0.021025
      py      :     0.010849
 11 H s       :     0.888100  s :     0.888100
      pz      :     0.007762  p :     0.039637
      px      :     0.021025
      py      :     0.010849

SPIN
  0 C s       :     0.000000  s :     0.000000
      pz      :     0.000000  p :     0.000000
      px      :     0.000000
      py      :     0.000000
      dz2     :     0.000000  d :     0.000000
      dxz     :     0.000000
      dyz     :     0.000000
      dx2y2   :     0.000000
      dxy     :     0.000000
  1 C s       :     0.000000  s :     0.000000
      pz      :     0.000000  p :     0.000000
      px      :     0.000000
      py      :     0.000000
      dz2     :     0.000000  d :     0.000000
      dxz     :     0.000000
      dyz     :     0.000000
      dx2y2   :     0.000000
      dxy     :     0.000000
  2 C s       :     0.000000  s :     0.000000
      pz      :     0.000000  p :     0.000000
      px      :     0.000000
      py      :     0.000000
      dz2     :     0.000000  d :     0.000000
      dxz     :     0.000000
      dyz     :     0.000000
      dx2y2   :     0.000000
      dxy     :     0.000000
  3 C s       :     0.000000  s :     0.000000
      pz      :     0.000000  p :     0.000000
      px      :     0.000000
      py      :     0.000000
      dz2     :     0.000000  d :     0.000000
      dxz     :     0.000000
      dyz     :     0.000000
      dx2y2   :     0.000000
      dxy     :     0.000000
  4 C s       :     0.000000  s :     0.000000
      pz      :     0.000000  p :     0.000000
      px      :     0.000000
      py      :     0.000000
      dz2     :     0.000000  d :     0.000000
      dxz     :     0.000000
      dyz     :     0.000000
      dx2y2   :     0.000000
      dxy     :     0.000000
  5 C s       :     0.000000  s :     0.000000
      pz      :     0.000000  p :     0.000000
      px      :     0.000000
      py      :     0.000000
      dz2     :     0.000000  d :     0.000000
      dxz     :     0.000000
      dyz     :     0.000000
      dx2y2   :     0.000000
      dxy     :     0.000000
  6 H s       :     0.000000  s :     0.000000
      pz      :     0.000000  p :     0.000000
      px      :     0.000000
      py      :     0.000000
  7 H s       :     0.000000  s :     0.000000
      pz      :     0.000000  p :     0.000000
      px      :     0.000000
      py      :     0.000000
  8 H s       :     0.000000  s :     0.000000
      pz      :     0.000000  p :     0.000000
      px      :     0.000000
      py      :     0.000000
  9 H s       :     0.000000  s :     0.000000
      pz      :     0.000000  p :     0.000000
      px      :     0.000000
      py      :     0.000000
 10 H s       :     0.000000  s :     0.000000
      pz      :     0.000000  p :     0.000000
      px      :     0.000000
      py      :     0.000000
 11 H s       :     0.000000  s :     0.000000
      pz      :     0.000000  p :     0.000000
      px      :     0.000000
      py      :     0.000000


                      *****************************
                      * MAYER POPULATION ANALYSIS *
                      *****************************

  NA   - Mulliken gross atomic population
  ZA   - Total nuclear charge
  QA   - Mulliken gross atomic charge
  VA   - Mayer's total valence
  BVA  - Mayer's bonded valence
  FA   - Mayer's free valence

  ATOM       NA         ZA         QA         VA         BVA        FA
  0 C      6.0828     6.0000    -0.0828     3.9597     3.9597     0.0000
  1 C      6.0827     6.0000    -0.0827     3.9598     3.9598     0.0000
  2 C      6.0827     6.0000    -0.0827     3.9598     3.9598     0.0000
  3 C      6.0828     6.0000    -0.0828     3.9597     3.9597     0.0000
  4 C      6.0827     6.0000    -0.0827     3.9598     3.9598     0.0000
  5 C      6.0827     6.0000    -0.0827     3.9598     3.9598     0.0000
  6 H      0.9173     1.0000     0.0827     0.9574     0.9574    -0.0000
  7 H      0.9172     1.0000     0.0828     0.9574     0.9574    -0.0000
  8 H      0.9172     1.0000     0.0828     0.9574     0.9574     0.0000
  9 H      0.9173     1.0000     0.0827     0.9574     0.9574     0.0000
 10 H      0.9172     1.0000     0.0828     0.9574     0.9574    -0.0000
 11 H      0.9172     1.0000     0.0828     0.9574     0.9574     0.0000

  Mayer bond orders larger than 0.100000
B(  0-C ,  1-C ) :   1.4515 B(  0-C ,  5-C ) :   1.4515 B(  0-C ,  6-H ) :   0.9439 
B(  1-C ,  2-C ) :   1.4516 B(  1-C ,  7-H ) :   0.9439 B(  2-C ,  3-C ) :   1.4515 
B(  2-C ,  8-H ) :   0.9439 B(  3-C ,  4-C ) :   1.4515 B(  3-C ,  9-H ) :   0.9439 
B(  4-C ,  5-C ) :   1.4516 B(  4-C , 10-H ) :   0.9439 B(  5-C , 11-H ) :   0.9439 


-------
TIMINGS
-------

Total SCF time: 0 days 0 hours 0 min 3 sec 

Total time                  ....       3.005 sec
Sum of individual times     ....       2.761 sec  ( 91.9%)

Fock matrix formation       ....       1.799 sec  ( 59.9%)
  Split-RI-J                ....       0.378 sec  ( 21.0% of F)
  Chain of spheres X        ....       0.895 sec  ( 49.7% of F)
  XC integration            ....       0.421 sec  ( 23.4% of F)
    Basis function eval.    ....       0.034 sec  (  8.1% of XC)
    Density eval.           ....       0.061 sec  ( 14.4% of XC)
    XC-Functional eval.     ....       0.010 sec  (  2.3% of XC)
    XC-Potential eval.      ....       0.047 sec  ( 11.2% of XC)
Diagonalization             ....       0.156 sec  (  5.2%)
Density matrix formation    ....       0.008 sec  (  0.3%)
Population analysis         ....       0.014 sec  (  0.5%)
Initial guess               ....       0.047 sec  (  1.6%)
Orbital Transformation      ....       0.000 sec  (  0.0%)
Orbital Orthonormalization  ....       0.000 sec  (  0.0%)
DIIS solution               ....       0.118 sec  (  3.9%)
Grid generation             ....       0.619 sec  ( 20.6%)

Maximum memory used throughout the entire SCF-calculation: 49.2 MB

-------------------------   --------------------
FINAL SINGLE POINT ENERGY      -232.099012398468
-------------------------   --------------------



           ************************************************************
           *        Program running with 64 parallel MPI-processes    *
           *              working on a common directory               *
           ************************************************************
------------------------------------------------------------------------------
                         ORCA SCF GRADIENT CALCULATION
------------------------------------------------------------------------------

 ... reading COSX grid (gridx3)
Gradient of the Kohn-Sham DFT energy:
Kohn-Sham wavefunction type      ... UKS
Hartree-Fock exchange scaling    ...    0.200
Number of operators              ...    2
Number of atoms                  ...   12
Basis set dimensions             ...  114
Integral neglect threshold       ... 1.0e-12
Integral primitive cutoff        ... 1.0e-14
SHARK Integral package           ... ON

Nuc. rep. gradient       (SHARK) ... done (  0.0 sec)
HCore & Overlap gradient (SHARK) ... done (  0.0 sec)
RI-J gradient            (SHARK) ... done (  0.1 sec)
COSX-gradient                    ... done (  0.3 sec)
Exchange-correlation gradient    ... done

------------------
CARTESIAN GRADIENT
------------------

   1   C   :    0.000000009   -0.001904693    0.000000002
   2   C   :   -0.001704890   -0.000961576    0.000000004
   3   C   :   -0.001704901    0.000961575    0.000000004
   4   C   :    0.000000006    0.001904719    0.000000001
   5   C   :    0.001704897    0.000961585    0.000000012
   6   C   :    0.001704908   -0.000961593   -0.000000001
   7   H   :   -0.000000001    0.000202680    0.000000000
   8   H   :    0.000175300    0.000091514   -0.000000001
   9   H   :    0.000175303   -0.000091510    0.000000001
  10   H   :    0.000000002   -0.000202686   -0.000000001
  11   H   :   -0.000175306   -0.000091517   -0.000000000
  12   H   :   -0.000175298    0.000091510    0.000000000

Difference to translation invariance:
           :    0.0000000303    0.0000000095    0.0000000202

Difference to rotation invariance:
           :   -0.0000000071    0.0000000101    0.0000000264

Norm of the cartesian gradient     ...    0.0047769941
RMS gradient                       ...    0.0007961657
MAX gradient                       ...    0.0019047194

-------
TIMINGS
-------

Total SCF gradient time            ...        0.757 sec

One electron gradient       ....       0.007 sec  (  0.9%)
RI-J Coulomb gradient       ....       0.114 sec  ( 15.1%)
COSX gradient               ....       0.256 sec  ( 33.8%)
XC gradient                 ....       0.107 sec  ( 14.1%)

Maximum memory used throughout the entire SCFGRAD-calculation: 37.4 MB
------------------------------------------------------------------------------
                         ORCA GEOMETRY RELAXATION STEP
------------------------------------------------------------------------------

Reading the OPT-File                    .... done
Getting information on internals        .... done
Copying old internal coords+grads       .... done
Making the new internal coordinates     .... (new redundants).... done
Validating the new internal coordinates .... (new redundants).... done
Calculating the B-matrix                .... done
Calculating the G,G- and P matrices     .... done
Transforming gradient to internals      .... done
Projecting the internal gradient        .... done
Number of atoms                         ....  12
Number of internal coordinates          ....  54
Current Energy                          ....  -232.099012398 Eh
Current gradient norm                   ....     0.004776994 Eh/bohr
Maximum allowed component of the step   ....  0.300
Current trust radius                    ....  0.300
Evaluating the initial hessian          ....  (Almloef) done
Projecting the Hessian                  .... done
Forming the augmented Hessian           .... done
Diagonalizing the augmented Hessian     .... done
Last element of RFO vector              ....  0.999974887
Lowest eigenvalues of augmented Hessian:
 -0.000030328  0.025955031  0.025955031  0.025955038  0.025955038
Length of the computed step             ....  0.007087181
The final length of the internal step   ....  0.007087181
Converting the step to cartesian space:
 Initial RMS(Int)=    0.0009644432
Transforming coordinates:
 Iter   0:  RMS(Cart)=    0.0014908044 RMS(Int)=    2.0943953021
 Iter   1:  RMS(Cart)=    0.0000000496 RMS(Int)=    0.0000000314
done
Storing new coordinates                 .... done

                                .--------------------.
          ----------------------|Geometry convergence|-------------------------
          Item                value                   Tolerance       Converged
          ---------------------------------------------------------------------
          RMS gradient        0.0005840720            0.0000080000      NO
          MAX gradient        0.0017501785            0.0000300000      NO
          RMS step            0.0009644432            0.0001000000      NO
          MAX step            0.0028555838            0.0002000000      NO
          ........................................................
          Max(Bonds)      0.0015      Max(Angles)    0.01
          Max(Dihed)        0.00      Max(Improp)    0.00
          ---------------------------------------------------------------------

The optimization has not yet converged - more geometry cycles are needed


    ---------------------------------------------------------------------------
                         Redundant Internal Coordinates
                            (Angstroem and degrees)

        Definition                    Value    dE/dq     Step     New-Value
    ----------------------------------------------------------------------------
     1. B(C   1,C   0)                1.3952 -0.001750  0.0015    1.3968   
     2. B(C   2,C   1)                1.3952 -0.001721  0.0015    1.3967   
     3. B(C   3,C   2)                1.3952 -0.001750  0.0015    1.3968   
     4. B(C   4,C   3)                1.3952 -0.001750  0.0015    1.3968   
     5. B(C   5,C   4)                1.3952 -0.001721  0.0015    1.3967   
     6. B(C   5,C   0)                1.3952 -0.001750  0.0015    1.3968   
     7. B(H   6,C   0)                1.0871  0.000203 -0.0003    1.0868   
     8. B(H   7,C   1)                1.0871  0.000198 -0.0003    1.0868   
     9. B(H   8,C   2)                1.0871  0.000198 -0.0003    1.0868   
    10. B(H   9,C   3)                1.0871  0.000203 -0.0003    1.0868   
    11. B(H  10,C   4)                1.0871  0.000198 -0.0003    1.0868   
    12. B(H  11,C   5)                1.0871  0.000198 -0.0003    1.0868   
    13. A(C   1,C   0,C   5)          120.00 -0.000036    0.01    120.01   
    14. A(C   1,C   0,H   6)          120.00  0.000018   -0.00    120.00   
    15. A(C   5,C   0,H   6)          120.00  0.000018   -0.00    120.00   
    16. A(C   2,C   1,H   7)          120.00 -0.000018    0.00    120.00   
    17. A(C   0,C   1,C   2)          120.00  0.000018   -0.00    120.00   
    18. A(C   0,C   1,H   7)          120.00 -0.000000   -0.00    120.00   
    19. A(C   3,C   2,H   8)          120.00 -0.000000   -0.00    120.00   
    20. A(C   1,C   2,H   8)          120.00 -0.000018    0.00    120.00   
    21. A(C   1,C   2,C   3)          120.00  0.000018   -0.00    120.00   
    22. A(C   4,C   3,H   9)          120.00  0.000018   -0.00    120.00   
    23. A(C   2,C   3,H   9)          120.00  0.000018   -0.00    120.00   
    24. A(C   2,C   3,C   4)          120.00 -0.000036    0.01    120.01   
    25. A(C   3,C   4,H  10)          120.00 -0.000000   -0.00    120.00   
    26. A(C   3,C   4,C   5)          120.00  0.000018   -0.00    120.00   
    27. A(C   5,C   4,H  10)          120.00 -0.000018    0.00    120.00   
    28. A(C   0,C   5,C   4)          120.00  0.000018   -0.00    120.00   
    29. A(C   4,C   5,H  11)          120.00 -0.000018    0.00    120.00   
    30. A(C   0,C   5,H  11)          120.00 -0.000000   -0.00    120.00   
    31. D(H   7,C   1,C   0,C   5)    180.00 -0.000000    0.00    180.00   
    32. D(H   7,C   1,C   0,H   6)      0.00 -0.000000    0.00      0.00   
    33. D(C   2,C   1,C   0,H   6)    180.00  0.000000   -0.00    180.00   
    34. D(C   2,C   1,C   0,C   5)      0.00  0.000000   -0.00     -0.00   
    35. D(H   8,C   2,C   1,C   0)    180.00 -0.000000    0.00    180.00   
    36. D(C   3,C   2,C   1,C   0)      0.00 -0.000000    0.00      0.00   
    37. D(C   3,C   2,C   1,H   7)    180.00  0.000000   -0.00    180.00   
    38. D(H   8,C   2,C   1,H   7)      0.00  0.000000   -0.00     -0.00   
    39. D(H   9,C   3,C   2,H   8)      0.00 -0.000000    0.00      0.00   
    40. D(H   9,C   3,C   2,C   1)    180.00 -0.000000    0.00    180.00   
    41. D(C   4,C   3,C   2,H   8)    180.00  0.000000   -0.00    180.00   
    42. D(C   4,C   3,C   2,C   1)      0.00 -0.000000    0.00      0.00   
    43. D(H  10,C   4,C   3,C   2)    180.00 -0.000000    0.00    180.00   
    44. D(C   5,C   4,C   3,H   9)    180.00  0.000000   -0.00    180.00   
    45. D(C   5,C   4,C   3,C   2)      0.00  0.000000   -0.00     -0.00   
    46. D(H  10,C   4,C   3,H   9)      0.00 -0.000000    0.00      0.00   
    47. D(H  11,C   5,C   4,H  10)      0.00  0.000000   -0.00     -0.00   
    48. D(C   0,C   5,C   4,H  10)    180.00  0.000000   -0.00    180.00   
    49. D(C   0,C   5,C   4,C   3)      0.00 -0.000000    0.00      0.00   
    50. D(H  11,C   5,C   0,H   6)      0.00  0.000000   -0.00     -0.00   
    51. D(H  11,C   5,C   0,C   1)    180.00  0.000000   -0.00    180.00   
    52. D(H  11,C   5,C   4,C   3)    180.00 -0.000000    0.00    180.00   
    53. D(C   4,C   5,C   0,H   6)    180.00 -0.000000    0.00    180.00   
    54. D(C   4,C   5,C   0,C   1)      0.00  0.000000   -0.00     -0.00   
    ----------------------------------------------------------------------------

         *************************************************************
         *                GEOMETRY OPTIMIZATION CYCLE   2            *
         *************************************************************
---------------------------------
CARTESIAN COORDINATES (ANGSTROEM)
---------------------------------
  C     -0.000000    1.396692   -0.000000
  C      1.209660    0.698367   -0.000000
  C      1.209660   -0.698367   -0.000000
  C      0.000000   -1.396692   -0.000000
  C     -1.209660   -0.698367   -0.000000
  C     -1.209660    0.698367   -0.000000
  H      0.000000    2.483510    0.000000
  H      2.150853    1.241823    0.000000
  H      2.150853   -1.241823    0.000000
  H      0.000000   -2.483510    0.000000
  H     -2.150853   -1.241823   -0.000000
  H     -2.150853    1.241824    0.000000

----------------------------
CARTESIAN COORDINATES (A.U.)
----------------------------
  NO LB      ZA    FRAG     MASS         X           Y           Z
   0 C     6.0000    0    12.011   -0.000000    2.639366   -0.000000
   1 C     6.0000    0    12.011    2.285926    1.319722   -0.000000
   2 C     6.0000    0    12.011    2.285926   -1.319722   -0.000000
   3 C     6.0000    0    12.011    0.000000   -2.639366   -0.000000
   4 C     6.0000    0    12.011   -2.285926   -1.319722   -0.000000
   5 C     6.0000    0    12.011   -2.285926    1.319722   -0.000000
   6 H     1.0000    0     1.008    0.000000    4.693153    0.000000
   7 H     1.0000    0     1.008    4.064523    2.346706    0.000000
   8 H     1.0000    0     1.008    4.064523   -2.346706    0.000000
   9 H     1.0000    0     1.008    0.000000   -4.693153    0.000000
  10 H     1.0000    0     1.008   -4.064523   -2.346706   -0.000000
  11 H     1.0000    0     1.008   -4.064523    2.346706    0.000000

--------------------------------
INTERNAL COORDINATES (ANGSTROEM)
--------------------------------
 C      0   0   0     0.000000000000     0.00000000     0.00000000
 C      1   0   0     1.396758924600     0.00000000     0.00000000
 C      2   1   0     1.396733983117   119.99743451     0.00000000
 C      3   2   1     1.396758924797   119.99743353     0.00000000
 C      4   3   2     1.396758925784   120.00513160     0.00000000
 C      5   4   3     1.396733992881   119.99743512     0.00000000
 H      1   2   3     1.086817325057   119.99743328   179.99999600
 H      2   1   3     1.086825094202   119.99989051   180.00000460
 H      3   2   1     1.086825091998   120.00267588   180.00000427
 H      4   3   2     1.086817314126   119.99743402   180.00000526
 H      5   4   3     1.086825076778   119.99988991   180.00000308
 H      6   5   4     1.086825092793   120.00267649   180.00000579

---------------------------
INTERNAL COORDINATES (A.U.)
---------------------------
 C      0   0   0     0.000000000000     0.00000000     0.00000000
 C      1   0   0     2.639491842605     0.00000000     0.00000000
 C      2   1   0     2.639444710031   119.99743451     0.00000000
 C      3   2   1     2.639491842977   119.99743353     0.00000000
 C      4   3   2     2.639491844843   120.00513160     0.00000000
 C      5   4   3     2.639444728483   119.99743512     0.00000000
 H      1   2   3     2.053787101959   119.99743328   179.99999600
 H      2   1   3     2.053801783515   119.99989051   180.00000460
 H      3   2   1     2.053801779350   120.00267588   180.00000427
 H      4   3   2     2.053787081302   119.99743402   180.00000526
 H      5   4   3     2.053801750588   119.99988991   180.00000308
 H      6   5   4     2.053801780852   120.00267649   180.00000579



           ************************************************************
           *        Program running with 64 parallel MPI-processes    *
           *              working on a common directory               *
           ************************************************************
------------------------------------------------------------------------------
                   ___                                                        
[...]
     17      -0.042583  -0.073766  -0.051653   0.089181  -0.057339   0.000000
     18       0.000000  -0.000000  -0.000000  -0.000000  -0.000000  -0.000001
     19      -0.000000   0.000000   0.000000  -0.000000  -0.000000  -0.287318
     20       0.570983  -0.000233  -0.568067  -0.000709  -0.404161   0.000000
     21      -0.000000   0.000000  -0.000000  -0.000000   0.000000   0.248996
     22       0.000000   0.000000   0.000000   0.000000   0.000000   0.143473
     23       0.285358  -0.494643   0.283430   0.492325   0.404222  -0.000000
     24       0.000000   0.000000  -0.000000   0.000000   0.000000  -0.249016
     25      -0.000000  -0.000000  -0.000000  -0.000000   0.000000   0.143483
     26      -0.285762  -0.494410   0.284656  -0.491616  -0.404222   0.000000
     27       0.000000  -0.000000   0.000000  -0.000000  -0.000000  -0.000001
     28      -0.000000  -0.000000  -0.000000   0.000000  -0.000000  -0.287295
     29      -0.570982   0.000233  -0.568066  -0.000708   0.404162  -0.000000
     30       0.000000   0.000000   0.000000   0.000000  -0.000000   0.249016
     31      -0.000000   0.000000   0.000000   0.000000   0.000000   0.143485
     32      -0.285358   0.494642   0.283429   0.492325  -0.404223   0.000000
     33       0.000000   0.000000   0.000000  -0.000000  -0.000000  -0.248996
     34      -0.000000  -0.000000   0.000000  -0.000000   0.000000   0.143472
     35       0.285761   0.494410   0.284658  -0.491615   0.404222  -0.000000
                 18         19         20         21         22         23    
      0      -0.000000   0.000066  -0.082340  -0.033248   0.061843   0.000086
      1       0.275610  -0.117520  -0.000093  -0.000000   0.000005  -0.003350
      2      -0.000000  -0.000000  -0.000000  -0.000000   0.000000  -0.000000
      3       0.238712  -0.086563   0.067438   0.016614  -0.013016   0.028169
      4       0.137740   0.032364   0.086520  -0.028817   0.028281  -0.045539
      5       0.000000   0.000000   0.000000  -0.000000   0.000000  -0.000000
      6       0.238695   0.086456   0.067576   0.016614   0.012937   0.028206
      7      -0.137730   0.032502  -0.086469   0.028817   0.028154   0.045618
      8      -0.000000  -0.000000  -0.000000   0.000000  -0.000000   0.000000
      9       0.000000   0.000066  -0.082340  -0.033248  -0.061843  -0.000086
     10      -0.275630  -0.117520  -0.000094  -0.000000  -0.000005   0.003350
     11       0.000000   0.000000   0.000000   0.000000   0.000000   0.000000
     12      -0.238695  -0.086563   0.067438   0.016614   0.013016  -0.028170
     13      -0.137730   0.032364   0.086520  -0.028817  -0.028281   0.045539
     14      -0.000000   0.000000   0.000000   0.000000   0.000000   0.000000
     15      -0.238712   0.086456   0.067576   0.016614  -0.012937  -0.028206
     16       0.137740   0.032502  -0.086468   0.028817  -0.028154  -0.045618
     17       0.000000  -0.000000   0.000000   0.000000  -0.000000  -0.000000
     18      -0.000000   0.000434  -0.544906  -0.406771   0.574053   0.000800
     19       0.301193  -0.126473  -0.000101  -0.000000   0.000004  -0.003133
     20       0.000000   0.000000   0.000000   0.000000  -0.000000   0.000000
     21       0.260965  -0.290608  -0.041599   0.203498  -0.141541   0.249708
     22       0.150360   0.376715   0.290815  -0.352418   0.250436  -0.429378
     23      -0.000000  -0.000000  -0.000000   0.000000   0.000000  -0.000000
     24       0.260947   0.290674  -0.041136   0.203498   0.140845   0.250102
     25      -0.150351   0.377178  -0.290215   0.352418   0.249239   0.430074
     26       0.000000   0.000000   0.000000   0.000000   0.000000   0.000000
     27       0.000000   0.000434  -0.544906  -0.406769  -0.574054  -0.000800
     28      -0.301213  -0.126473  -0.000101  -0.000000  -0.000004   0.003133
     29      -0.000000  -0.000000  -0.000000  -0.000000  -0.000000  -0.000000
     30      -0.260948  -0.290608  -0.041599   0.203498   0.141541  -0.249709
     31      -0.150351   0.376715   0.290815  -0.352418  -0.250436   0.429378
     32       0.000000   0.000000  -0.000000   0.000000   0.000000   0.000000
     33      -0.260965   0.290674  -0.041136   0.203498  -0.140844  -0.250102
     34       0.150360   0.377178  -0.290214   0.352418  -0.249238  -0.430074
     35      -0.000000   0.000000  -0.000000  -0.000000   0.000000   0.000000
                 24         25         26         27         28         29    
      0       0.292486   0.060267   0.000164  -0.149078  -0.000138  -0.332143
      1      -0.000000   0.000000  -0.094252  -0.000104   0.149888  -0.000062
      2      -0.000000  -0.000000  -0.000000  -0.000000   0.000000  -0.000000
      3      -0.146240   0.030121  -0.105396   0.033330   0.078956   0.195470
      4       0.253254  -0.052165   0.088098   0.105512  -0.286623  -0.078774
      5       0.000000  -0.000000  -0.000000   0.000000  -0.000000   0.000000
      6      -0.146240  -0.030121   0.105323   0.033562   0.078794  -0.195536
      7      -0.253254  -0.052165   0.088329  -0.105318   0.286558  -0.079013
      8       0.000000   0.000000   0.000000  -0.000000  -0.000000   0.000000
      9       0.292486  -0.060267   0.000164  -0.149078   0.000138   0.332143
     10      -0.000000   0.000000  -0.094252  -0.000104  -0.149888   0.000062
     11      -0.000000  -0.000000   0.000000   0.000000   0.000000  -0.000000
     12      -0.146240  -0.030121  -0.105396   0.033330  -0.078956  -0.195470
     13       0.253254   0.052165   0.088098   0.105512   0.286623   0.078774
     14       0.000000   0.000000   0.000000  -0.000000  -0.000000   0.000000
     15      -0.146240   0.030121   0.105323   0.033562  -0.078794   0.195535
     16      -0.253254   0.052165   0.088329  -0.105318  -0.286558   0.079013
     17      -0.000000  -0.000000  -0.000000   0.000000   0.000000  -0.000000
     18      -0.284963  -0.403737  -0.000590   0.537503   0.000173   0.415132
     19      -0.000000   0.000000  -0.115274  -0.000127   0.167699  -0.000070
     20       0.000000   0.000000   0.000000  -0.000000   0.000000   0.000000
     21       0.142440  -0.201940   0.182652   0.221096  -0.252486   0.022051
     22      -0.246599   0.349677  -0.431750  -0.183251   0.269541   0.252367
     23      -0.000000  -0.000000   0.000000  -0.000000  -0.000000  -0.000000
     24       0.142440   0.201940  -0.183137   0.220694  -0.252504  -0.021842
     25       0.246599   0.349677  -0.432151   0.182302  -0.269332   0.252591
     26      -0.000000   0.000000  -0.000000   0.000000   0.000000  -0.000000
     27      -0.284963   0.403737  -0.000590   0.537503  -0.000173  -0.415133
     28      -0.000000   0.000000  -0.115274  -0.000127  -0.167699   0.000070
     29      -0.000000  -0.000000  -0.000000  -0.000000  -0.000000   0.000000
     30       0.142440   0.201940   0.182652   0.221096   0.252486  -0.022052
     31      -0.246599  -0.349676  -0.431750  -0.183251  -0.269542  -0.252367
     32      -0.000000   0.000000  -0.000000   0.000000   0.000000  -0.000000
     33       0.142440  -0.201940  -0.183137   0.220694   0.252504   0.021841
     34       0.246599  -0.349677  -0.432151   0.182302   0.269332  -0.252591
     35      -0.000000  -0.000000   0.000000  -0.000000  -0.000000  -0.000000
                 30         31         32         33         34         35    
      0      -0.000000  -0.000000  -0.001984  -0.000000   0.003455  -0.000000
      1      -0.033983   0.049185  -0.000012   0.051226   0.000005  -0.037161
      2      -0.000000   0.000000   0.000000   0.000000   0.000000  -0.000000
      3       0.029231  -0.020306   0.037317   0.023811  -0.037624  -0.032340
      4       0.016890  -0.013709   0.020406   0.010293  -0.023725  -0.018679
      5       0.000000  -0.000000   0.000000   0.000000  -0.000000  -0.000000
      6      -0.029231  -0.020325  -0.037308  -0.023803  -0.037628  -0.032340
      7       0.016890   0.013719   0.020399   0.010288   0.023726   0.018679
      8      -0.000000  -0.000000  -0.000000  -0.000000  -0.000000  -0.000000
      9       0.000000   0.000000   0.001984  -0.000000   0.003455  -0.000000
     10      -0.033983  -0.049184   0.000012   0.051226   0.000005   0.037162
     11       0.000000   0.000000   0.000000  -0.000000  -0.000000  -0.000000
     12       0.029230   0.020306  -0.037318   0.023810  -0.037624   0.032340
     13       0.016890   0.013709  -0.020406   0.010292  -0.023725   0.018679
     14      -0.000000  -0.000000   0.000000  -0.000000   0.000000  -0.000000
     15      -0.029231   0.020324   0.037308  -0.023803  -0.037628   0.032340
     16       0.016890  -0.013719  -0.020399   0.010288   0.023726  -0.018679
     17       0.000000  -0.000000  -0.000000   0.000000   0.000000  -0.000000
     18       0.000000   0.000001   0.002258   0.000000  -0.004649   0.000000
     19       0.408523  -0.576281   0.000137  -0.573832  -0.000052   0.405062
     20       0.000000  -0.000000   0.000000  -0.000000  -0.000000   0.000000
     21      -0.351581   0.247094  -0.432034  -0.252080   0.430060   0.352686
     22      -0.203053   0.144968  -0.248194  -0.140919   0.251052   0.203683
     23      -0.000000   0.000000  -0.000000  -0.000000   0.000000   0.000000
     24       0.351581   0.247305   0.431916   0.251995   0.430106   0.352688
     25      -0.203053  -0.145088  -0.248124  -0.140869  -0.251078  -0.203684
     26       0.000000   0.000000   0.000000   0.000000   0.000000   0.000000
     27      -0.000000  -0.000001  -0.002258   0.000000  -0.004649   0.000000
     28       0.408520   0.576279  -0.000140  -0.573831  -0.000056  -0.405068
     29      -0.000000  -0.000000   0.000000   0.000000   0.000000   0.000000
     30      -0.351577  -0.247095   0.432038  -0.252075   0.430059  -0.352690
     31      -0.203051  -0.144968   0.248196  -0.140916   0.251052  -0.203685
     32       0.000000   0.000000  -0.000000   0.000000  -0.000000   0.000000
     33       0.351578  -0.247301  -0.431918   0.251999   0.430106  -0.352688
     34      -0.203051   0.145086   0.248126  -0.140871  -0.251078   0.203684
     35      -0.000000   0.000000   0.000000  -0.000000  -0.000000   0.000000


-----------
IR SPECTRUM
-----------

 Mode   freq       eps      Int      T**2         TX        TY        TZ
       cm**-1   L/(mol*cm) km/mol    a.u.
----------------------------------------------------------------------------
  6:    414.28   0.000000    0.00  0.000000  ( 0.000000  0.000000  0.000000)
  7:    414.38   0.000000    0.00  0.000000  (-0.000000  0.000000 -0.000004)
  8:    620.64   0.000000    0.00  0.000000  ( 0.000000  0.000000 -0.000000)
  9:    620.74   0.000000    0.00  0.000000  (-0.000000 -0.000000  0.000000)
 10:    693.44   0.014480   73.18  0.006516  ( 0.000000 -0.000000  0.080724)
 11:    718.16   0.000000    0.00  0.000000  ( 0.000000 -0.000000 -0.000000)
 12:    865.36   0.000000    0.00  0.000000  ( 0.000000  0.000000 -0.000000)
 13:    865.40   0.000000    0.00  0.000000  (-0.000000  0.000000 -0.000000)
 14:    974.89   0.000000    0.00  0.000000  (-0.000000  0.000000  0.000035)
 15:    974.90   0.000000    0.00  0.000000  ( 0.000000  0.000000  0.000000)
 16:   1013.65   0.000000    0.00  0.000000  (-0.000000  0.000000 -0.000000)
 17:   1018.09   0.000000    0.00  0.000000  (-0.000000  0.000002  0.000000)
 18:   1018.75   0.000000    0.00  0.000000  ( 0.000000 -0.000000  0.000000)
 19:   1065.45   0.000662    3.35  0.000194  ( 0.000011  0.013927  0.000000)
 20:   1065.55   0.000659    3.33  0.000193  (-0.013890  0.000011  0.000000)
 21:   1178.45   0.000000    0.00  0.000000  (-0.000034  0.000000 -0.000000)
 22:   1201.25   0.000000    0.00  0.000000  ( 0.000000  0.000000 -0.000000)
 23:   1201.25   0.000000    0.00  0.000000  ( 0.000000 -0.000000 -0.000000)
 24:   1353.07   0.000000    0.00  0.000000  (-0.000029 -0.000000  0.000000)
 25:   1379.82   0.000000    0.00  0.000000  (-0.000000  0.000000 -0.000000)
 26:   1522.94   0.001314    6.64  0.000269  (-0.000018 -0.016407 -0.000000)
 27:   1522.97   0.001312    6.63  0.000269  ( 0.016393 -0.000018  0.000000)
 28:   1650.43   0.000000    0.00  0.000000  (-0.000000  0.000000 -0.000000)
 29:   1650.47   0.000000    0.00  0.000000  ( 0.000000 -0.000000  0.000000)
 30:   3170.73   0.000000    0.00  0.000000  (-0.000000 -0.000141  0.000000)
 31:   3180.09   0.000000    0.00  0.000000  (-0.000000  0.000000 -0.000000)
 32:   3180.19   0.000000    0.00  0.000000  (-0.000000 -0.000000 -0.000000)
 33:   3195.59   0.009211   46.55  0.000899  ( 0.000003  0.029991  0.000000)
 34:   3195.67   0.009198   46.49  0.000898  (-0.029971  0.000003  0.000000)
 35:   3206.13   0.000000    0.00  0.000000  ( 0.000000  0.000000  0.000000)

* The epsilon (eps) is given for a Dirac delta lineshape.
** The dipole moment derivative (T) already includes vibrational overlap.

The first frequency considered to be a vibration is 6
The total number of vibrations considered is 30


--------------------------
THERMOCHEMISTRY AT 298.15K
--------------------------

Temperature         ... 298.15 K
Pressure            ... 1.00 atm
Total Mass          ... 78.11 AMU

Throughout the following assumptions are being made:
  (1) The electronic state is orbitally nondegenerate
  (2) There are no thermally accessible electronically excited states
  (3) Hindered rotations indicated by low frequency modes are not
      treated as such but are treated as vibrations and this may
      cause some error
  (4) All equations used are the standard statistical mechanics
      equations for an ideal gas
  (5) All vibrations are strictly harmonic

freq.     414.28  E(vib)   ...       0.19 
freq.     414.38  E(vib)   ...       0.19 
freq.     620.64  E(vib)   ...       0.09 
freq.     620.74  E(vib)   ...       0.09 
freq.     693.44  E(vib)   ...       0.07 
freq.     718.16  E(vib)   ...       0.07 
freq.     865.36  E(vib)   ...       0.04 
freq.     865.40  E(vib)   ...       0.04 
freq.     974.89  E(vib)   ...       0.03 
freq.     974.90  E(vib)   ...       0.03 
freq.    1013.65  E(vib)   ...       0.02 
freq.    1018.09  E(vib)   ...       0.02 
freq.    1018.75  E(vib)   ...       0.02 
freq.    1065.45  E(vib)   ...       0.02 
freq.    1065.55  E(vib)   ...       0.02 
freq.    1178.45  E(vib)   ...       0.01 
freq.    1201.25  E(vib)   ...       0.01 
freq.    1201.25  E(vib)   ...       0.01 
freq.    1353.07  E(vib)   ...       0.01 
freq.    1379.82  E(vib)   ...       0.01 
freq.    1522.94  E(vib)   ...       0.00 
freq.    1522.97  E(vib)   ...       0.00 
freq.    1650.43  E(vib)   ...       0.00 
freq.    1650.47  E(vib)   ...       0.00 
freq.    3170.73  E(vib)   ...       0.00 
freq.    3180.09  E(vib)   ...       0.00 
freq.    3180.19  E(vib)   ...       0.00 
freq.    3195.59  E(vib)   ...       0.00 
freq.    3195.67  E(vib)   ...       0.00 
freq.    3206.13  E(vib)   ...       0.00 

------------
INNER ENERGY
------------

The inner energy is: U= E(el) + E(ZPE) + E(vib) + E(rot) + E(trans)
    E(el)   - is the total energy from the electronic structure calculation
              = E(kin-el) + E(nuc-el) + E(el-el) + E(nuc-nuc)
    E(ZPE)  - the the zero temperature vibrational energy from the frequency calculation
    E(vib)  - the the finite temperature correction to E(ZPE) due to population
              of excited vibrational states
    E(rot)  - is the rotational thermal energy
    E(trans)- is the translational thermal energy

Summary of contributions to the inner energy U:
Electronic energy                ...   -232.09903011 Eh
Zero point energy                ...      0.10054178 Eh      63.09 kcal/mol
Thermal vibrational correction   ...      0.00155795 Eh       0.98 kcal/mol
Thermal rotational correction    ...      0.00141627 Eh       0.89 kcal/mol
Thermal translational correction ...      0.00141627 Eh       0.89 kcal/mol
-----------------------------------------------------------------------
Total thermal energy                   -231.99409784 Eh


Summary of corrections to the electronic energy:
(perhaps to be used in another calculation)
Total thermal correction                  0.00439049 Eh       2.76 kcal/mol
Non-thermal (ZPE) correction              0.10054178 Eh      63.09 kcal/mol
-----------------------------------------------------------------------
Total correction                          0.10493227 Eh      65.85 kcal/mol


--------
ENTHALPY
--------

The enthalpy is H = U + kB*T
                kB is Boltzmann's constant
Total free energy                 ...   -231.99409784 Eh 
Thermal Enthalpy correction       ...      0.00094421 Eh       0.59 kcal/mol
-----------------------------------------------------------------------
Total Enthalpy                    ...   -231.99315363 Eh


Note: Rotational entropy computed according to Herzberg 
Infrared and Raman Spectra, Chapter V,1, Van Nostrand Reinhold, 1945 
Point Group:  D2h, Symmetry Number:   4  
Rotational constants in cm-1:     0.189466     0.189434     0.094725 

Vibrational entropy computed according to the QRRHO of S. Grimme
Chem.Eur.J. 2012 18 9955


-------
ENTROPY
-------

The entropy contributions are T*S = T*(S(el)+S(vib)+S(rot)+S(trans))
     S(el)   - electronic entropy
     S(vib)  - vibrational entropy
     S(rot)  - rotational entropy
     S(trans)- translational entropy
The entropies will be listed as multiplied by the temperature to get
units of energy

Electronic entropy                ...      0.00000000 Eh      0.00 kcal/mol
Vibrational entropy               ...      0.00208797 Eh      1.31 kcal/mol
Rotational entropy                ...      0.01088528 Eh      6.83 kcal/mol
Translational entropy             ...      0.01852142 Eh     11.62 kcal/mol
-----------------------------------------------------------------------
Final entropy term                ...      0.03149467 Eh     19.76 kcal/mol

In case the symmetry of your molecule has not been determined correctly
or in case you have a reason to use a different symmetry number we print 
out the resulting rotational entropy values for sn=1,12 :
 --------------------------------------------------------
|  sn= 1 | S(rot)=       0.01219419 Eh      7.65 kcal/mol|
|  sn= 2 | S(rot)=       0.01153974 Eh      7.24 kcal/mol|
|  sn= 3 | S(rot)=       0.01115690 Eh      7.00 kcal/mol|
|  sn= 4 | S(rot)=       0.01088528 Eh      6.83 kcal/mol|
|  sn= 5 | S(rot)=       0.01067459 Eh      6.70 kcal/mol|
|  sn= 6 | S(rot)=       0.01050245 Eh      6.59 kcal/mol|
|  sn= 7 | S(rot)=       0.01035690 Eh      6.50 kcal/mol|
|  sn= 8 | S(rot)=       0.01023082 Eh      6.42 kcal/mol|
|  sn= 9 | S(rot)=       0.01011961 Eh      6.35 kcal/mol|
|  sn=10 | S(rot)=       0.01002013 Eh      6.29 kcal/mol|
|  sn=11 | S(rot)=       0.00993014 Eh      6.23 kcal/mol|
|  sn=12 | S(rot)=       0.00984799 Eh      6.18 kcal/mol|
 --------------------------------------------------------


-------------------
GIBBS FREE ENERGY
-------------------

The Gibbs free energy is G = H - T*S

Total enthalpy                    ...   -231.99315363 Eh 
Total entropy correction          ...     -0.03149467 Eh    -19.76 kcal/mol
-----------------------------------------------------------------------
Final Gibbs free energy         ...   -232.02464831 Eh

For completeness - the Gibbs free energy minus the electronic energy
G-E(el)                           ...      0.07438181 Eh     46.68 kcal/mol


Timings for individual modules:

Sum of individual times         ...       28.137 sec (=   0.469 min)
GTO integral calculation        ...        2.603 sec (=   0.043 min)   9.3 %
SCF iterations                  ...       11.079 sec (=   0.185 min)  39.4 %
SCF Gradient evaluation         ...        3.562 sec (=   0.059 min)  12.7 %
Geometry relaxation             ...        0.132 sec (=   0.002 min)   0.5 %
Analytical frequency calculation...       10.761 sec (=   0.179 min)  38.2 %
                             ****ORCA TERMINATED NORMALLY****
TOTAL RUN TIME: 0 days 0 hours 0 minutes 30 seconds 126 msec
